256
Lattice="6.724616 0.0 0.0 0.0 6.724616 0.0 0.0 0.0 6.724616" Properties=species:S:1:pos:R:3 Time=100
Ar  3.13652804e+00 -3.20204260e+00 -3.19110516e+00
Ar -2.20005441e+00 -7.82172995e-01 -2.41929455e+00
Ar -3.02813602e+00 -5.97783263e-02 -4.17771038e-01
Ar -7.85539971e-01 -1.32378646e+00  2.08265280e+00
Ar  3.02374457e+00  8.69146161e-01  1.19055372e-01
Ar -2.39225445e+00  2.15211607e+00  2.96740401e+00
Ar -1.48971842e+00 -1.40200137e+00  2.95732319e+00
Ar  1.48677413e-02  2.70214800e+00  6.02335362e-01
Ar  2.34979052e+00 -1.81685347e+00  2.31736770e+00
Ar  8.19422552e-01 -3.16051413e+00  1.26356087e+00
Ar -3.30838580e+00 -2.17139675e+00  2.02128903e+00
Ar  1.61196796e+00 -2.50657236e+00 -1.16752101e+00
Ar -2.70614060e+00 -9.49324889e-01  1.47058201e+00
Ar  9.93191856e-01  1.95773011e+00  3.03004429e+00
Ar  1.08610221e+00 -2.58142049e+00  4.36092831e-01
Ar  2.10841842e+00 -2.14158720e+00  1.98562489e-01
Ar -2.44245935e-01 -1.03739768e+00  1.23601805e+00
Ar -1.01381744e+00  2.09633373e+00 -8.56019755e-01
Ar  1.79935617e-01 -1.16536496e+00 -2.03863869e-02
Ar  5.01458332e-01 -1.92880748e+00  1.56239906e+00
Ar  2.61142757e+00  1.46835274e+00 -3.17830929e+00
Ar -3.23001664e+00 -6.96366954e-01 -2.73696302e+00
Ar -1.88533046e+00 -3.19575322e+00  9.56738223e-01
Ar  3.04911674e+00 -4.24357254e-01  7.58675778e-01
Ar -5.65259046e-01  9.08567585e-01  1.73392195e+00
Ar  2.20250632e+00  3.30682235e-01  3.33501615e+00
Ar -1.27212724e+00 -3.95980151e-01 -2.46789339e+00
Ar -2.43749167e+00  2.62257777e+00  1.75741672e+00
Ar  3.30795110e+00  3.26813936e+00 -2.06127244e+00
Ar  1.36395263e+00 -2.58791435e+00  3.34209468e+00
Ar -3.21393970e+00 -1.83417384e+00  8.92361193e-01
Ar -1.35376284e+00  3.32454907e+00 -7.24231756e-01
Ar  2.34305770e+00 -4.37499856e-01 -1.53973768e+00
Ar  2.29591318e+00  2.79702225e-01  1.42607991e+00
Ar -1.59497459e+00  1.48734763e+00 -1.86442026e-01
Ar -1.72986518e+00  6.48072762e-02  9.86552784e-01
Ar -3.31778000e+00  1.82384721e+00 -3.24327152e-01
Ar  2.62033652e+00 -2.56815785e+00  1.48033676e+00
Ar -2.97765292e+00 -3.04676616e+00  1.44387165e+00
Ar  3.13158794e+00 -2.61975108e+00  5.03130011e-01
Ar  2.46805390e+00  1.50873641e+00 -7.74659091e-01
Ar  2.97901936e+00  3.27742323e+00 -2.29946624e-01
Ar -2.06586793e+00 -1.36907118e-02 -1.11642316e-02
Ar  3.20392496e+00  9.64281103e-01  1.46166498e+00
Ar -1.57345265e+00  3.49516734e-01  2.09275316e+00
Ar -1.92722652e+00  2.47071596e+00 -7.89402807e-01
Ar  2.36562830e+00  2.40230290e+00 -1.75920707e+00
Ar  2.81219760e-01  1.11981949e+00  3.16974310e+00
Ar  1.27700279e+00  1.71596451e+00 -2.20955309e+00
Ar  2.66245961e+00 -2.37570282e+00  3.18158127e+00
Ar -1.16120114e+00 -1.19222641e+00 -6.01019897e-01
Ar -6.25381208e-01 -2.35601723e+00 -5.54099386e-01
Ar -1.92920755e+00 -2.91759622e+00 -1.45105388e+00
Ar -2.64394005e+00 -1.92740375e+00 -1.07674077e-01
Ar -5.32414875e-02  3.22574858e+00  1.90949074e+00
Ar -2.85054871e+00  3.16393172e+00  4.77214771e-01
Ar -1.12600690e-01 -7.38872826e-02  5.55259413e-01
Ar  6.11457431e-01 -2.92192398e+00  2.56066562e+00
Ar -4.15802238e-01 -4.73455395e-01 -1.80511349e+00
Ar  2.79283040e+00 -2.97817355e+00 -1.12427227e+00
Ar -1.92190852e+00 -2.38907181e+00  3.05168575e+00
Ar  1.53888149e+00  1.96253424e+00  8.91355659e-01
Ar -1.61582913e+00  1.51078497e+00  2.08841176e+00
Ar  1.53992448e+00  6.78507773e-01 -1.42746493e+00
Ar  4.31030766e-01 -7.31023284e-01  1.93732302e+00
Ar  1.86931819e+00 -1.63648407e+00  3.30103786e+00
Ar  9.77746425e-01 -2.77594952e-01  7.51744219e-01
Ar -1.78974954e+00 -2.34180237e+00  3.52335573e-01
Ar  1.12372278e+00  1.82780808e+00 -9.48836097e-01
Ar  1.30078259e+00  8.82579461e-01  2.70117942e+00
Ar -2.46010134e+00 -1.38365856e+00  3.23883145e+00
Ar -2.97911183e+00  3.04560512e+00  2.69158090e+00
Ar -1.41585756e+00  1.12388438e+00  3.10724615e+00
Ar  1.35525293e-01  2.60615079e-01 -1.29892119e+00
Ar -1.14746660e-01 -1.27515498e+00 -1.11622693e+00
Ar -2.66954454e+00 -2.61474842e+00 -2.08594434e+00
Ar  1.05178003e+00  2.95288075e+00 -6.35463677e-01
Ar  1.11096845e+00 -1.57564696e+00  7.47348568e-01
Ar -6.47163466e-01 -3.11970603e+00 -1.44620962e+00
Ar -2.86369750e+00  4.04261557e-02  3.31759595e+00
Ar  2.49110392e+00  7.55306281e-01  2.33133636e+00
Ar -3.14949649e+00  1.73487559e+00  2.02344012e+00
Ar -2.55124778e+00 -3.08278099e+00 -3.01785778e+00
Ar -1.17330557e+00  2.30286567e+00  3.16968311e+00
Ar  3.01422742e+00  2.97879121e+00  1.15428347e+00
Ar  9.73961984e-01 -2.64567232e+00 -2.22720652e+00
Ar  3.31138020e+00 -2.29745126e-01  1.69706569e+00
Ar  1.42301155e+00 -3.76528676e-02  1.95277107e+00
Ar  1.04238482e+00 -1.70081843e+00 -1.55556120e+00
Ar -2.21505715e+00  6.98642591e-01 -8.14666260e-01
Ar -2.33984287e+00 -6.56150041e-02  1.73245767e+00
Ar -3.35874116e+00  2.04827506e+00  3.10321926e+00
Ar -2.87262388e+00  2.70854027e+00 -2.99971733e+00
Ar -3.12951280e+00 -2.20519455e+00 -1.12377237e+00
Ar  5.51338325e-01  7.12640819e-01 -2.02951105e+00
Ar  3.41922634e-01  1.11531150e+00 -3.29149176e-01
Ar -7.52061704e-01 -1.79866240e-01  1.47293990e+00
Ar  1.02238915e+00 -1.61258510e+00 -2.68554959e+00
Ar  3.18946632e+00  6.92340994e-01 -1.30389083e+00
Ar  9.20439698e-01 -1.23655884e+00  3.15661017e+00
Ar  2.07829097e+00 -3.13859491e+00 -2.90330747e+00
Ar -4.10272776e-01 -4.03888169e-01 -4.86796847e-01
Ar  3.17450186e+00  7.49442737e-01  3.18712796e+00
Ar  1.62711844e+00  1.43377172e+00 -3.09704505e+00
Ar -3.21821921e+00 -1.97265043e+00 -3.06309639e+00
Ar -3.07486290e+00 -1.54744107e+00 -2.08486774e+00
Ar  1.53669078e+00  2.64504766e+00 -2.45577239e+00
Ar  4.12839610e-01 -3.12634413e+00 -4.88273469e-02
Ar -2.42407478e+00 -8.57629301e-01 -7.31891626e-01
Ar  2.82264677e+00 -1.08051799e+00  3.14048982e+00
Ar  2.92761226e+00  2.63566649e+00  2.09792003e+00
Ar -9.66215901e-02  2.03978928e+00  2.86022033e+00
Ar -1.86069252e+00 -4.27527294e-01  3.13841299e+00
Ar  1.11189711e+00  1.33010699e-01 -5.98437658e-01
Ar  6.89134884e-02  1.77830283e+00 -1.02736903e+00
Ar -6.63694771e-01 -2.47945513e+00 -2.40888347e+00
Ar  1.32198711e+00 -2.12229181e+00  2.41671793e+00
Ar  1.77960948e+00 -1.12170495e+00 -2.04631540e+00
Ar  1.76098318e+00 -5.87065425e-01 -2.27250489e-01
Ar  2.89325735e+00 -1.86165716e-01  2.66826767e+00
Ar  1.20432755e+00 -1.48638656e+00 -3.28821180e-01
Ar -1.77145267e+00  3.02672738e+00  2.67520525e+00
Ar  2.61084150e+00  2.75054297e+00 -2.72834415e+00
Ar -2.68319581e-01 -2.44589342e+00  2.40758943e+00
Ar  3.03560257e+00 -3.03940968e+00  2.31402529e+00
Ar  2.90506536e+00 -1.75530200e+00 -1.91426767e-01
Ar  5.82304045e-01  2.85476245e+00  2.62512919e+00
Ar  2.03956282e-01  2.08616520e-01  1.54804982e+00
Ar  2.45456384e+00  1.64045707e+00  1.56130605e+00
Ar  2.46592385e+00 -1.52071421e+00  1.14200885e+00
Ar  2.20559464e+00  4.85803683e-01 -5.76100321e-01
Ar -5.10479989e-02 -2.49554677e+00  6.33180082e-01
Ar  3.96688369e-01  1.55763863e+00 -2.58054514e+00
Ar -2.77564133e+00  8.17762294e-01 -2.21144998e+00
Ar  3.06692699e+00 -2.41229631e+00 -2.29137137e+00
Ar  2.48603677e+00  1.32971155e+00 -2.15088035e+00
Ar  2.22813965e-01 -1.54192187e+00  2.53948273e+00
Ar -8.94948999e-01 -2.93714107e+00  3.01322164e+00
Ar  1.55721151e-01  2.32508300e+00 -1.98326112e+00
Ar -3.88872943e-01  6.05749683e-01  2.70014456e+00
Ar -1.84675340e+00  2.78852808e+00 -2.99354713e+00
Ar -8.05729131e-01  3.09005263e+00 -2.51730989e+00
Ar  1.16495552e+00 -1.95926091e-01 -1.70860111e+00
Ar -2.85142188e+00  1.42256904e-01  8.07076836e-01
Ar -5.99347216e-01 -8.00787453e-01 -3.09660081e+00
Ar -1.53916556e+00  2.53475901e+00  4.57570006e-01
Ar  2.51565997e+00  2.96349950e+00  2.93946249e+00
Ar -1.12898359e+00 -2.44793062e+00  1.24315513e+00
Ar -2.91681469e+00  1.55608715e+00 -1.36067496e+00
Ar -9.99968820e-01  5.37163066e-01 -1.30518803e-01
Ar  2.02279013e+00  1.86183590e+00  2.66927590e+00
Ar  1.77085321e+00 -6.36614589e-01  2.79970751e+00
Ar -3.04935013e+00  5.70986442e-01  2.35790117e+00
Ar  6.64621115e-01  2.60046176e+00 -2.95507199e+00
Ar  1.45582710e+00  3.10724558e+00  3.08244347e+00
Ar -1.84920000e+00  1.48854760e+00 -1.58047339e+00
Ar -1.41335403e-01 -1.52361694e+00 -2.45341306e+00
Ar -2.19298736e+00 -3.05675128e+00 -2.54895455e-01
Ar  2.58893910e+00 -1.52166776e+00 -2.52169602e+00
Ar  3.26317295e+00 -1.23528851e+00 -1.10139220e+00
Ar  1.89658810e+00 -6.72814024e-01  9.24629026e-01
Ar  4.76803460e-01 -5.69800863e-01 -2.46833336e+00
Ar -2.02817971e+00  1.85685978e+00  1.01761609e+00
Ar  1.95449816e+00 -3.13515224e+00 -4.52501766e-02
Ar  1.33907855e+00  2.97721340e+00  6.06450007e-01
Ar -1.03182590e+00  1.56896633e-01 -3.29196224e+00
Ar -3.27142685e+00  2.11507787e+00  9.07548753e-01
Ar -1.50564923e+00 -1.16724588e+00  1.13181414e+00
Ar  1.44195651e+00 -3.84101539e-01 -2.93023899e+00
Ar -6.84365246e-01  5.11845611e-01 -2.00587344e+00
Ar  3.05843990e+00  2.74631392e-01 -2.40934221e+00
Ar -1.82922479e+00 -2.05997782e+00 -6.52064332e-01
Ar -7.98259306e-01 -1.84423465e+00  2.75030899e-01
Ar  2.31553249e+00 -6.59389374e-01  1.84155088e+00
Ar  1.83138374e+00  5.31690576e-01 -2.41520234e+00
Ar  1.81659320e+00 -2.17159592e+00 -2.37959588e+00
Ar -2.10750904e+00 -1.96333790e+00 -2.71207652e+00
Ar -6.66328806e-01 -3.83960289e-01  2.59089785e+00
Ar  1.13927503e-01 -3.17009587e+00 -2.12552277e+00
Ar  4.21502515e-01  1.07897397e+00  2.03956010e+00
Ar  2.74074527e+00 -4.28785506e-01 -5.64366279e-01
Ar  2.00698780e+00 -3.28541305e+00 -1.93400578e+00
Ar -1.11919767e+00 -3.32772058e+00  1.87927887e+00
Ar  1.24096721e+00  1.73169582e+00  1.92474328e+00
Ar -3.63537013e-01  1.03484197e+00  7.54688702e-01
Ar -7.27709922e-01  1.71144195e+00 -1.81234725e+00
Ar -1.62179870e+00 -2.87375921e+00 -2.65632683e+00
Ar -5.63522629e-01 -1.81992872e+00  3.24742040e+00
Ar -1.23898957e+00 -1.40248941e+00 -2.53614725e+00
Ar  2.18803990e+00  2.81309585e+00 -6.52249892e-01
Ar -2.36042374e+00  1.67172954e+00 -2.56935150e+00
Ar -2.18488929e+00 -1.73659168e+00 -1.64206421e+00
Ar -1.65335575e+00  9.77260578e-01 -2.48350921e+00
Ar -2.31780818e+00  2.58789809e+00 -1.89304728e+00
Ar  1.31322947e+00  6.89344637e-01  1.24169581e+00
Ar -1.81292360e+00  1.26973852e-01 -1.74110137e+00
Ar -3.09661106e+00  2.52557441e+00 -1.18759301e+00
Ar -5.56878230e-02  1.91004168e+00  1.80930029e+00
Ar -5.44995380e-01  1.73164074e+00  1.19889485e-01
Ar -2.84756915e+00 -5.52208947e-01  2.50180188e+00
Ar  7.92820595e-01  2.48814968e+00  1.57655900e+00
Ar  6.03865435e-01  2.19043579e+00 -4.06737176e-02
Ar -2.14921603e+00  1.94304785e-01 -2.71267136e+00
Ar -7.38171684e-01  2.29133214e+00  1.13401026e+00
Ar -2.54962265e+00  1.04468998e+00  3.20014873e+00
Ar -5.99803233e-01  1.01354777e+00 -9.68597798e-01
Ar -1.57041701e+00 -8.79576973e-01 -1.58250848e+00
Ar  1.03633673e+00  6.05973202e-01 -3.01554588e+00
Ar  4.06317091e-02 -2.20418371e+00 -1.66322773e+00
Ar  8.93256306e-01  2.87287994e+00 -1.62643290e+00
Ar -2.95483687e+00 -2.66607308e+00  2.86861672e+00
Ar -2.66790414e+00  1.13969716e+00  4.58870869e-01
Ar -1.01653613e+00 -3.15805874e+00  3.16911274e-01
Ar  1.58911022e+00  1.00520649e+00  1.14694834e-01
Ar  6.03923187e-01  7.09745787e-01  5.33351206e-01
Ar -1.33615126e+00  2.74081305e+00 -1.64432524e+00
Ar -1.34097459e+00 -6.48267990e-02 -8.50938117e-01
Ar  2.52154338e+00 -1.95119404e+00 -1.53358180e+00
Ar  2.23226966e-01 -2.40132905e+00 -3.00406583e+00
Ar -1.35574684e+00  1.05766502e+00  1.06510180e+00
Ar -1.33221100e+00  1.96088866e+00 -2.56965923e+00
Ar -3.55274951e-01  2.25938687e+00 -2.83400780e+00
Ar -6.47502056e-01  1.05822200e+00 -2.97472502e+00
Ar  6.69408659e-01 -2.78336551e-01  2.82097330e+00
Ar -1.08312137e+00  2.46290163e+00  2.08210746e+00
Ar  1.86907746e+00  2.69503864e+00  2.05585081e+00
Ar -2.11297136e+00 -2.22589267e+00  1.32060975e+00
Ar -2.84513109e+00 -3.20469415e+00 -1.13682658e+00
Ar -2.86947392e+00 -2.01045318e-01 -1.66402650e+00
Ar  1.36806371e+00 -1.20232020e+00  1.96809593e+00
Ar  2.33552349e+00  1.58257623e+00  4.34704330e-01
Ar  2.45756712e+00  2.61087512e+00  3.53261049e-01
Ar -2.41007568e+00  1.00083053e+00  1.61187490e+00
Ar  2.46640115e+00 -4.76106109e-01 -2.77674012e+00
Ar  3.24751498e+00  2.04007523e+00 -2.28536656e+00
Ar  2.04483980e+00  1.82004549e-01  4.05043534e-01
Ar  3.17209241e+00 -1.19525468e+00  2.16335148e+00
Ar -1.72948076e+00 -7.67624174e-01  2.08943255e+00
Ar -2.89019452e+00 -1.00281167e+00  2.73271338e-01
Ar  4.50824357e-01  1.73565825e+00  9.18324839e-01
Ar  1.97655661e+00 -2.94147207e+00  2.35770143e+00
Ar  1.64218896e+00  2.15222559e+00 -1.66678609e-01
Ar  2.07666666e+00 -1.25470272e+00 -9.85576240e-01
Ar -1.86656956e+00 -1.26930533e+00  1.82554686e-01
Ar -9.82178083e-01 -5.62678269e-01  3.66039219e-01
Ar -1.30209364e-01  3.20886798e+00  3.34517668e+00
Ar -2.42381279e+00  2.22536360e+00  6.03867893e-02
Ar  2.40387453e-02  1.41724891e-02 -3.11625484e+00
Ar -5.73159132e-02  2.85890142e+00 -9.11567428e-01
Ar  4.63261208e-01 -2.82337760e+00 -1.03350020e+00
Ar  1.95628373e+00 -3.27890476e+00  1.30088389e+00
Ar -1.35810246e+00 -2.08048618e+00  2.25580299e+00
Ar  1.55267078e+00 -2.28513667e+00  1.41448695e+00
Ar -2.10931008e+00 -2.86822979e+00  2.10080620e+00
Ar -1.15440745e+00 -1.94151259e+00 -1.48844918e+00
Ar -2.32160740e+00 -1.63762761e+00  2.25649869e+00
256
Lattice="6.724616 0.0 0.0 0.0 6.724616 0.0 0.0 0.0 6.724616" Properties=species:S:1:pos:R:3 Time=200
Ar  3.22916988e+00 -2.94289096e+00  3.32504962e+00
Ar -2.48951860e+00 -1.05708040e+00 -2.09792990e+00
Ar -2.50543288e+00  1.04141726e-01 -7.24150621e-01
Ar -7.74363612e-01 -1.32527978e+00  2.17088449e+00
Ar  2.93765653e+00  7.66272072e-01 -2.54372223e-01
Ar -2.35540805e+00  2.17595868e+00  3.07424196e+00
Ar -1.52632369e+00 -1.33747173e+00  2.96149147e+00
Ar  1.35540391e-02  2.35349090e+00  8.27332918e-01
Ar  2.18550799e+00 -1.79925997e+00  2.31935557e+00
Ar  4.97684965e-01 -3.16647475e+00  1.04771385e+00
Ar  3.36218688e+00 -1.86039724e+00  1.50496832e+00
Ar  1.72726535e+00 -2.55027920e+00 -1.06855086e+00
Ar -2.54104077e+00 -1.01381299e+00  1.32007617e+00
Ar  7.83358155e-01  1.91787431e+00  2.77277123e+00
Ar  1.18488550e+00 -2.58248063e+00  2.89788128e-01
Ar  2.19130862e+00 -2.19120872e+00  5.48563380e-01
Ar  5.74689601e-02 -1.31032907e+00  1.26108694e+00
Ar -1.07110231e+00  1.96852397e+00 -8.89919396e-01
Ar -3.57426129e-03 -1.15838002e+00  1.19210123e-01
Ar  3.54297403e-01 -2.26679224e+00  1.68761457e+00
Ar  2.49944612e+00  1.70011073e+00 -2.97117820e+00
Ar -3.33832626e+00 -6.81210614e-01 -2.55975128e+00
Ar -1.83526768e+00 -3.14645960e+00  1.33890239e+00
Ar  3.14801255e+00 -9.18632387e-01  8.89900749e-01
Ar -7.11936681e-01  1.20643610e+00  1.73341319e+00
Ar  1.81522384e+00  8.83567379e-02  3.18547477e+00
Ar -1.42780083e+00 -6.84579966e-01 -2.85985196e+00
Ar -2.64484314e+00  2.81787753e+00  1.53397843e+00
Ar  3.08497227e+00  3.09673993e+00 -1.93585189e+00
Ar  1.08733570e+00 -2.76704715e+00 -3.26258600e+00
Ar  3.12563918e+00 -1.90557512e+00  3.77618520e-01
Ar -1.28157752e+00  3.29181210e+00 -3.76706892e-01
Ar  2.63951610e+00 -4.09676926e-01 -1.72789679e+00
Ar  2.11056706e+00  4.63426914e-01  1.68535782e+00
Ar -1.54011723e+00  1.72963736e+00  2.60461162e-03
Ar -1.60611396e+00 -4.61714506e-01  1.09141397e+00
Ar  3.00215109e+00  1.98687648e+00 -2.14645907e-01
Ar  2.80626166e+00 -2.67396473e+00  1.27827484e+00
Ar -2.93118901e+00 -2.86686085e+00  1.19790251e+00
Ar  3.00764664e+00 -2.93031880e+00  2.54635046e-01
Ar  2.56592661e+00  1.72245450e+00 -1.18901274e+00
Ar  3.29378494e+00  2.97548684e+00 -4.20096115e-01
Ar -2.11202775e+00 -1.16512489e-01  2.22618826e-01
Ar -3.35420481e+00  8.26055663e-01  1.30519906e+00
Ar -1.56566400e+00  6.54790742e-01  2.02690230e+00
Ar -2.21054588e+00  2.75571741e+00 -8.17327180e-01
Ar  2.21384250e+00  2.39416878e+00 -1.94465608e+00
Ar  4.68117451e-01  9.65131257e-01  2.94795436e+00
Ar  1.16069605e+00  1.82801022e+00 -2.05990447e+00
Ar  2.32362930e+00 -2.33309094e+00  3.29837435e+00
Ar -9.81119893e-01 -1.26130814e+00 -7.30335417e-01
Ar -4.70431786e-01 -2.31180069e+00 -4.17601605e-01
Ar -2.05600021e+00 -3.03825763e+00 -1.44059749e+00
Ar -2.50093235e+00 -2.33899666e+00  3.92577584e-01
Ar -1.78178929e-02  3.33303955e+00  1.94886993e+00
Ar -2.93992985e+00  3.01557625e+00  5.24556670e-01
Ar -2.75659797e-01  1.07724455e-01  5.59353083e-01
Ar  6.98115057e-01 -2.94352542e+00  2.56579154e+00
Ar -4.84089043e-01 -7.53005124e-01 -1.56903398e+00
Ar  2.74047202e+00 -2.83708609e+00 -7.79173900e-01
Ar -2.22704963e+00 -2.09077574e+00  3.17240978e+00
Ar  1.82269234e+00  2.16242295e+00  1.05438729e+00
Ar -1.86807994e+00  1.67169926e+00  1.94024413e+00
Ar  1.05533360e+00  7.75979613e-01 -1.34010695e+00
Ar  1.92521502e-01 -5.06061465e-01  2.33464504e+00
Ar  1.41391254e+00 -1.70648725e+00 -3.13915483e+00
Ar  6.74365456e-01 -3.64172214e-01  3.34130824e-01
Ar -1.32879180e+00 -2.70180145e+00  3.42620317e-01
Ar  1.42117920e+00  1.69394980e+00 -9.58546012e-01
Ar  1.40747520e+00  7.24748064e-01  2.44896480e+00
Ar -2.48693420e+00 -9.86110159e-01 -3.21582449e+00
Ar -2.94358682e+00  2.95923144e+00  2.73068347e+00
Ar -1.23032129e+00  1.67337363e+00  3.07898918e+00
Ar  2.50879683e-01  1.07569029e-01 -1.36876936e+00
Ar  1.70303277e-01 -1.27538385e+00 -1.08405958e+00
Ar -2.79470674e+00 -2.90403301e+00 -2.34961451e+00
Ar  8.40828305e-01  2.79693371e+00 -5.75943935e-01
Ar  1.26772131e+00 -1.50646999e+00  5.57197971e-01
Ar -8.17150595e-01 -3.00435113e+00 -1.36558000e+00
Ar -2.90954348e+00  7.55123921e-03 -3.28397563e+00
Ar  2.37681396e+00  7.95598131e-01  2.70159263e+00
Ar -2.81781059e+00  1.58549030e+00  2.23939324e+00
Ar -2.39041166e+00 -3.15344985e+00 -3.28914889e+00
Ar -8.87009243e-01  2.70403813e+00  3.01857757e+00
Ar  3.04456607e+00  3.05068497e+00  1.25647165e+00
Ar  9.75941483e-01 -2.87834581e+00 -2.24043810e+00
Ar  3.13523040e+00 -1.15786587e-01  1.70238094e+00
Ar  1.25194988e+00 -2.20741024e-01  1.97475354e+00
Ar  1.16943645e+00 -1.28404326e+00 -1.08833513e+00
Ar -2.00545628e+00  1.03216228e+00 -6.98675145e-01
Ar -2.39825758e+00  1.73172633e-02  1.83859505e+00
Ar  3.30115463e+00  1.97838850e+00  3.06669152e+00
Ar -2.98671873e+00  2.76043689e+00 -2.93032874e+00
Ar -3.00044657e+00 -1.98385272e+00 -5.87615005e-01
Ar  2.25168931e-02  9.80979254e-01 -2.01679197e+00
Ar  5.58050473e-02  8.86409574e-01 -7.02610260e-01
Ar -7.20520025e-01 -3.48703207e-01  1.64666473e+00
Ar  8.56062063e-01 -1.31499672e+00 -2.17707879e+00
Ar  2.82231820e+00  7.25177803e-01 -1.68401703e+00
Ar  6.98024304e-01 -1.05564080e+00  3.22101781e+00
Ar  2.06826117e+00 -3.13473814e+00 -3.04996352e+00
Ar -4.40661208e-02 -1.50537016e-01 -3.98578277e-01
Ar  3.25039913e+00  8.58062092e-01  3.29368078e+00
Ar  1.54732995e+00  1.31628867e+00  3.31234947e+00
Ar -3.13933842e+00 -1.95359036e+00 -2.91105971e+00
Ar -3.21331791e+00 -1.84354617e+00 -1.83112678e+00
Ar  1.48093302e+00  2.29002125e+00 -3.01561681e+00
Ar  2.44836080e-01 -2.97657843e+00 -4.70704422e-02
Ar -2.04300050e+00 -9.66923627e-01 -6.82476236e-01
Ar  2.49952171e+00 -1.25186767e+00  3.14139879e+00
Ar  3.08810863e+00  2.29304141e+00  1.95653831e+00
Ar -3.06954449e-01  1.71193440e+00  2.70180481e+00
Ar -1.91628078e+00 -2.23405204e-01  2.95807403e+00
Ar  1.39472836e+00  3.92946564e-01 -3.05129699e-01
Ar  1.24899496e-01  1.83822866e+00 -1.02045627e+00
Ar -3.04593124e-01 -2.47469657e+00 -2.42170057e+00
Ar  1.16307554e+00 -1.99934778e+00  2.46562893e+00
Ar  1.96065707e+00 -1.20864953e+00 -1.74160336e+00
Ar  1.55852446e+00 -6.66577660e-01 -1.99034586e-01
Ar  2.88745326e+00 -2.20296850e-01  2.84476599e+00
Ar  6.46525263e-01 -1.79166463e+00 -3.77353588e-01
Ar -1.79746998e+00  2.65128848e+00  2.29848218e+00
Ar  2.47849683e+00  2.71202750e+00 -2.89377752e+00
Ar -4.60262480e-01 -2.43918317e+00  2.35736450e+00
Ar  3.12136710e+00 -3.30627708e+00  2.19333272e+00
Ar  2.48393454e+00 -1.09616256e+00  6.30864161e-02
Ar  9.14109952e-02  2.67438283e+00  2.80554510e+00
Ar  4.10174132e-01  1.32996450e-02  1.30289630e+00
Ar  2.42350053e+00  1.45853577e+00  1.83471709e+00
Ar  2.21637040e+00 -1.52015818e+00  1.26008258e+00
Ar  2.03479117e+00  1.90896422e-01 -1.16850532e+00
Ar  3.09583142e-01 -2.11006445e+00  6.02579688e-01
Ar  5.91674922e-01  1.75757597e+00 -2.86991449e+00
Ar -2.61029052e+00  8.95675306e-01 -2.49452186e+00
Ar  2.77662865e+00 -2.61006733e+00 -2.41780736e+00
Ar  1.99989297e+00  1.35050747e+00 -1.97372063e+00
Ar  8.76183338e-02 -1.54806351e+00  2.49326182e+00
Ar -1.35592564e+00 -3.05732976e+00  3.18742823e+00
Ar  2.41831671e-01  2.32465269e+00 -2.06641724e+00
Ar -5.25743127e-01  5.56244685e-01  2.45871982e+00
Ar -1.84415925e+00  2.94323687e+00 -2.74516599e+00
Ar -7.34733695e-01  3.13186336e+00 -2.62388926e+00
Ar  1.31981597e+00 -3.77107882e-01 -1.66898673e+00
Ar -2.96866032e+00 -1.19423931e-02  7.65400596e-01
Ar -2.69388852e-01 -9.56568112e-01 -3.29486834e+00
Ar -1.58702053e+00  2.93173970e+00  5.04077101e-01
Ar  2.53953982e+00  2.93195696e+00  2.80526286e+00
Ar -6.08197389e-01 -2.51367675e+00  1.36938839e+00
Ar -2.73044878e+00  1.38408788e+00 -1.58845784e+00
Ar -1.02061569e+00  7.00469698e-01 -2.17066209e-01
Ar  2.22899004e+00  1.97350453e+00  2.73327365e+00
Ar  1.64408587e+00 -7.95605030e-01  2.68848774e+00
Ar -3.19487047e+00  6.39299822e-01  2.31221064e+00
Ar  5.78067217e-01  2.94806757e+00 -2.98526240e+00
Ar  1.31140207e+00  3.03663765e+00  2.90999873e+00
Ar -2.00585763e+00  2.02750994e+00 -1.51787461e+00
Ar -1.40673215e-01 -1.43063756e+00 -2.27057940e+00
Ar -2.61653004e+00 -3.05733262e+00 -3.35021658e-01
Ar  2.61631223e+00 -1.54976486e+00 -2.57116824e+00
Ar  3.29250177e+00 -1.06428345e+00 -9.95834988e-01
Ar  1.81495692e+00 -5.98757438e-01  9.19651491e-01
Ar  2.36616804e-01 -4.27956126e-01 -2.22128934e+00
Ar -2.02172499e+00  1.92887442e+00  9.39012590e-01
Ar  1.85870837e+00 -3.32960617e+00 -1.90533482e-01
Ar  9.01405576e-01  2.79129496e+00  4.65386512e-01
Ar -1.12601474e+00  3.57318948e-01 -3.25778063e+00
Ar -3.17080265e+00  1.90159155e+00  1.13286552e+00
Ar -1.35693152e+00 -1.47424993e+00  1.26911318e+00
Ar  1.31737137e+00 -6.06841972e-01 -2.75989711e+00
Ar -7.66859512e-01  8.83127641e-02 -2.33443337e+00
Ar  3.18608512e+00  3.04936650e-01 -2.65925892e+00
Ar -1.66855062e+00 -2.25043885e+00 -6.29796116e-01
Ar -8.43103967e-01 -1.65002238e+00  4.24045415e-01
Ar  2.40415633e+00 -8.05716480e-01  2.00946761e+00
Ar  2.06301651e+00  4.10558683e-01 -2.53717159e+00
Ar  1.83754439e+00 -2.19290971e+00 -2.15060365e+00
Ar -2.13782380e+00 -1.97809247e+00 -2.48242521e+00
Ar -8.83404136e-01 -4.28029074e-01  2.78744335e+00
Ar  1.40245353e-01  3.29995284e+00 -1.95752784e+00
Ar  4.85090061e-01  1.05669530e+00  1.88372370e+00
Ar  2.74614453e+00 -2.99634691e-01 -6.24492718e-01
Ar  1.97599363e+00  3.34565349e+00 -2.04126168e+00
Ar -1.09006425e+00 -3.32228342e+00  2.11544116e+00
Ar  1.38829031e+00  1.63197786e+00  1.91409701e+00
Ar -2.09254852e-01  1.13436501e+00  8.36076077e-01
Ar -6.31356957e-01  1.74054181e+00 -1.85431142e+00
Ar -1.36376881e+00 -2.71712393e+00 -2.48856169e+00
Ar -8.22682102e-01 -2.07592439e+00  3.27718541e+00
Ar -1.08172589e+00 -1.65383541e+00 -2.58938411e+00
Ar  1.84945776e+00  2.87149883e+00 -1.11699610e+00
Ar -2.42575655e+00  1.93656681e+00 -2.57949201e+00
Ar -2.27326489e+00 -1.89931366e+00 -1.36721605e+00
Ar -1.48198936e+00  1.05804276e+00 -2.60277886e+00
Ar -2.58752344e+00  2.93688891e+00 -1.87898024e+00
Ar  1.31217838e+00  6.19375454e-01  1.00923530e+00
Ar -1.77067509e+00  2.45772724e-01 -1.69951492e+00
Ar -3.18137602e+00  2.29033844e+00 -1.18770711e+00
Ar  8.72342430e-02  1.93808055e+00  1.75537394e+00
Ar -4.53633405e-01  1.79550722e+00  1.80716394e-02
Ar -2.86972064e+00 -6.20614976e-01  2.54618622e+00
Ar  9.42596383e-01  2.67143643e+00  1.56640204e+00
Ar  6.84653829e-01  1.78297301e+00 -4.51682035e-02
Ar -2.00334837e+00  1.32924643e-01 -2.77475880e+00
Ar -1.02598839e+00  2.05328679e+00  9.73689951e-01
Ar -2.19863856e+00  9.44551354e-01  3.15486229e+00
Ar -8.71255747e-01  7.76164343e-01 -1.29777955e+00
Ar -1.50147958e+00 -1.05371717e+00 -1.65073075e+00
Ar  1.02769671e+00  7.37020394e-01 -2.59028225e+00
Ar  4.27211416e-01 -2.17745648e+00 -1.55787068e+00
Ar  1.10154448e+00  2.91630121e+00 -1.74519278e+00
Ar -2.88981278e+00 -2.54340455e+00  2.46542784e+00
Ar -2.66219001e+00  9.06250315e-01  3.50654187e-01
Ar -6.15896990e-01  3.18269824e+00  8.68415384e-01
Ar  1.63090373e+00  1.30759508e+00  2.66819179e-01
Ar  6.01913420e-01  7.50612319e-01  2.64610903e-01
Ar -1.21648961e+00  2.73586870e+00 -1.72421260e+00
Ar -1.44654480e+00 -1.60400556e-01 -7.31677506e-01
Ar  2.66416181e+00 -1.87017112e+00 -1.32665463e+00
Ar  3.36457282e-01 -2.12530700e+00 -3.16949066e+00
Ar -1.25538260e+00  7.75625606e-01  8.55240250e-01
Ar -1.30495577e+00  2.09816974e+00 -2.67471762e+00
Ar -3.23892509e-01  2.17598224e+00 -3.05304286e+00
Ar -4.16184929e-01  1.06795530e+00 -2.91653883e+00
Ar  7.60651883e-01  2.42804695e-02  3.05293575e+00
Ar -8.06630374e-01  2.39672164e+00  2.00892169e+00
Ar  2.07496672e+00  2.65555202e+00  1.93980565e+00
Ar -2.29017816e+00 -2.04812822e+00  1.39545471e+00
Ar -3.08541718e+00 -2.99977657e+00 -1.21184812e+00
Ar -2.97700641e+00  4.57147508e-02 -1.79939280e+00
Ar  1.15454536e+00 -1.27896685e+00  1.59248597e+00
Ar  2.76068874e+00  1.35109166e+00  6.59822370e-01
Ar  2.51775705e+00  2.74062510e+00  3.95227476e-01
Ar -2.30421591e+00  9.01499776e-01  1.31917604e+00
Ar  2.42169969e+00 -4.67482805e-01 -2.92819088e+00
Ar  3.18378656e+00  2.08503341e+00 -2.27137385e+00
Ar  2.74596457e+00  1.27245098e-01  6.63775662e-01
Ar  3.23498760e+00 -1.54611235e+00  2.56423480e+00
Ar -1.65896337e+00 -7.66966403e-01  2.17533305e+00
Ar -2.88486503e+00 -9.74829390e-01  1.06354836e-02
Ar  8.22523754e-01  1.72975687e+00  1.07611606e+00
Ar  1.90805777e+00 -2.86225576e+00  2.09153302e+00
Ar  1.65621302e+00  2.25432121e+00 -1.29315366e-02
Ar  1.89367612e+00 -1.82553575e+00 -4.03605438e-01
Ar -1.84974011e+00 -1.50640285e+00  2.28231587e-01
Ar -1.01462174e+00 -5.97156041e-01  1.03368980e-01
Ar -2.64035884e-01 -3.20498891e+00  3.12235294e+00
Ar -2.60855301e+00  1.83353217e+00 -3.29597798e-01
Ar -1.37905871e-01  6.48877705e-02 -3.08434668e+00
Ar -2.86210279e-01  2.72134583e+00 -6.18837173e-01
Ar  7.88161834e-01 -2.97782686e+00 -9.70747983e-01
Ar  1.78997878e+00 -3.21027525e+00  1.00837378e+00
Ar -1.46430347e+00 -2.24039540e+00  2.09425998e+00
Ar  1.46785391e+00 -2.26702289e+00  1.35389406e+00
Ar -2.09170408e+00 -3.14685905e+00  2.39605317e+00
Ar -9.26250486e-01 -2.05377722e+00 -1.63851544e+00
Ar -2.38136212e+00 -1.56822990e+00  2.28594173e+00
256
Lattice="6.724616 0.0 0.0 0.0 6.724616 0.0 0.0 0.0 6.724616" Properties=species:S:1:pos:R:3 Time=300
Ar  3.07119702e+00 -3.00160642e+00 -3.29386867e+00
Ar -2.62871974e+00 -7.11031906e-01 -1.78279598e+00
Ar -2.82708213e+00 -1.96718803e-01 -8.47789112e-01
Ar -9.23042158e-01 -1.50523210e+00  2.19706219e+00
Ar  2.68832970e+00  1.12372451e+00 -3.82843385e-01
Ar -2.22588150e+00  2.62884798e+00 -3.36224145e+00
Ar -1.51933131e+00 -1.20083692e+00  3.00610802e+00
Ar -4.84278392e-02  2.53499592e+00  5.19154965e-01
Ar  2.42777387e+00 -2.07868682e+00  2.18614915e+00
Ar  5.93115795e-01 -3.14361111e+00  1.06737283e+00
Ar  3.34048754e+00 -1.42193527e+00  1.61217450e+00
Ar  1.16385553e+00 -2.30160614e+00 -1.25831703e+00
Ar -2.67804991e+00 -6.97890134e-01  1.15660821e+00
Ar  8.14749173e-01  1.97064934e+00  2.62169796e+00
Ar  1.26486934e+00 -2.67334376e+00  3.37643720e-01
Ar  2.53400374e+00 -2.27195835e+00  2.62038775e-01
Ar  2.25750586e-01 -9.76629382e-01  1.28536784e+00
Ar -1.02991016e+00  1.74632085e+00 -8.16848088e-01
Ar  3.35914420e-01 -1.13612241e+00  1.25079923e-02
Ar  1.56757954e-01 -1.97270494e+00  1.63173624e+00
Ar  2.15705349e+00  1.60437069e+00 -2.78093258e+00
Ar -3.34064984e+00 -8.37137742e-01 -2.53458301e+00
Ar -1.77181106e+00 -2.90444936e+00  1.17471420e+00
Ar  2.97038136e+00 -7.51353001e-01  7.97012601e-01
Ar -5.29784596e-01  1.32896377e+00  1.56718185e+00
Ar  1.84723505e+00  2.10056638e-01  3.10574864e+00
Ar -1.33245144e+00 -6.37719575e-01 -2.75376984e+00
Ar -2.51296740e+00  2.54018292e+00  1.60211344e+00
Ar  2.92354583e+00  3.15475879e+00 -1.77243214e+00
Ar  1.06007026e+00 -3.11286187e+00  3.09017225e+00
Ar -3.25667804e+00 -1.62906279e+00  6.15969304e-01
Ar -1.35799751e+00 -3.24235070e+00 -6.04854340e-01
Ar  2.38132169e+00 -9.24657195e-02 -1.56417370e+00
Ar  2.25865999e+00  5.10724842e-01  1.39444222e+00
Ar -1.52738717e+00  1.48782532e+00  6.99988976e-02
Ar -1.73868266e+00 -5.92767218e-03  1.11026109e+00
Ar  2.61977529e+00  2.09629019e+00 -7.09181393e-02
Ar  2.75031586e+00 -2.71185522e+00  1.28276311e+00
Ar -2.86113839e+00 -3.02476343e+00  1.33445306e+00
Ar  3.21407508e+00 -3.10817455e+00  4.09285839e-01
Ar  2.40362637e+00  1.82524152e+00 -1.06456539e+00
Ar  3.25332185e+00  3.13150206e+00 -6.57789351e-01
Ar -2.04046607e+00  1.74153358e-01 -1.29249325e-02
Ar -3.27287545e+00  7.63946502e-01  1.72919081e+00
Ar -1.13042920e+00  4.93160241e-01  1.96436364e+00
Ar -1.90566627e+00  2.44952278e+00 -6.00640834e-01
Ar  2.11310084e+00  2.43237935e+00 -2.00350149e+00
Ar  7.63254260e-01  9.51134810e-01  2.98066101e+00
Ar  7.36947524e-01  1.54944249e+00 -2.06161935e+00
Ar  2.32626654e+00 -2.19288158e+00 -3.30339565e+00
Ar -8.15147045e-01 -1.06179533e+00 -6.84138537e-01
Ar -3.68571150e-01 -2.72348204e+00 -6.10271268e-01
Ar -1.91203257e+00 -2.92106440e+00 -1.54709974e+00
Ar -2.42594246e+00 -2.56099316e+00  4.32063685e-01
Ar -9.92108989e-02  3.13247823e+00  1.77246452e+00
Ar -2.96850739e+00  2.76164543e+00  2.00646438e-01
Ar -1.33277345e-01 -3.49751283e-01  4.96163161e-01
Ar  8.29243014e-01 -3.11399603e+00  2.09192596e+00
Ar -6.90762547e-01 -7.12026293e-01 -1.77643703e+00
Ar  2.49726624e+00 -2.86458277e+00 -5.58245763e-01
Ar -2.00776240e+00 -2.02312842e+00  3.32924815e+00
Ar  1.87367647e+00  2.12760673e+00  8.32117955e-01
Ar -1.46860824e+00  1.50360748e+00  1.94886135e+00
Ar  1.01809221e+00  6.38526635e-01 -1.74697955e+00
Ar  2.23797883e-01 -8.61170483e-01  2.31525439e+00
Ar  1.54244457e+00 -1.41637287e+00 -2.91963730e+00
Ar  1.13209215e+00 -5.02882052e-01  3.37062747e-01
Ar -1.37127252e+00 -2.34932274e+00  4.10985169e-01
Ar  1.13878272e+00  1.59523509e+00 -9.09455353e-01
Ar  1.41123893e+00  4.70647786e-01  2.14869508e+00