256
Lattice="6.839904 0.0 0.0 0.0 6.839904 0.0 0.0 0.0 6.839904" Properties=species:S:1:pos:R:3 Time=100
Ar -7.34954462e-01  2.48540537e+00 -1.67838340e+00
Ar  5.46105711e-02 -1.18074192e+00  2.56883888e+00
Ar -2.35330365e+00  7.73059916e-01 -3.04743692e+00
Ar -3.86671249e-01  9.92812597e-01 -3.37364054e+00
Ar  3.11719422e+00 -1.88477387e+00 -1.68597335e+00
Ar -4.90754746e-01  2.43058997e-01  5.87482799e-01
Ar -1.29770943e+00 -1.25977209e+00 -1.19357882e+00
Ar  1.56682323e+00 -1.44034072e+00 -2.83256000e+00
Ar -9.05503807e-01  1.93045829e+00  3.22646334e+00
Ar  5.39518606e-02  1.98228577e+00  3.12461997e+00
Ar  4.42505886e-01  1.15118179e+00  1.40083723e+00
Ar -1.93642340e+00 -3.13364053e+00 -2.14763902e+00
Ar  9.50436086e-01  8.57107727e-01 -2.21192711e+00
Ar  2.42924232e+00 -1.89555751e+00 -2.69361745e+00
Ar -1.06941518e+00 -1.61919890e+00  6.58942715e-01
Ar  1.02047288e+00  1.26314496e+00 -5.32120431e-01
Ar -3.68471695e-01  1.83416934e+00 -6.25368186e-01
Ar -3.33342996e+00 -6.97242189e-01  2.35193604e+00
Ar  2.53555819e+00  5.98576362e-01 -1.31602544e+00
Ar -2.39204572e+00  1.91164365e-01 -2.12451120e+00
Ar  2.85606365e+00 -2.72436688e+00 -1.23229868e+00
Ar -1.27127828e+00  2.46538177e+00  4.94800709e-01
Ar  1.33118096e+00 -1.40460464e+00  2.75386163e+00
Ar  8.66266629e-01 -5.90677372e-01 -3.30772199e+00
Ar  1.31096147e+00 -7.56112494e-01 -2.02752102e+00
Ar -1.12334599e-01 -1.60141959e+00  1.16899893e+00
Ar  1.09380608e+00  3.38411921e-01  2.02966388e+00
Ar -1.93726274e+00  2.47949972e+00  2.46846739e+00
Ar -1.93458008e+00  2.80696316e+00 -1.76430147e-01
Ar  2.18010618e-02 -2.55947187e+00  3.41080181e+00
Ar  2.17369029e+00  1.09965434e+00 -3.43171380e-01
Ar  1.62239555e+00  1.46395211e+00 -1.53803686e+00
Ar -1.72895619e+00 -4.42661182e-01 -1.72079296e+00
Ar  2.44115640e+00 -1.01351549e-01  3.22561063e+00
Ar  3.32464124e+00 -2.86618366e+00  1.92766061e+00
Ar -1.46149584e+00 -1.08187788e+00  2.96899654e+00
Ar  2.93279814e+00  2.96539481e+00 -3.82031438e-02
Ar -1.95496243e+00  3.03563750e-01 -9.02422940e-01
Ar -1.32074071e+00 -1.48694053e+00 -2.86517181e+00
Ar  2.69802078e+00 -2.68259717e+00 -2.24950254e+00
Ar -8.38226975e-01  9.00477968e-01 -1.18074302e+00
Ar -3.54339119e-01 -2.76636487e+00 -8.00242950e-01
Ar -1.27850711e-01 -2.35267956e+00 -1.71063223e+00
Ar  3.01310748e+00 -1.03200127e+00 -2.19844282e+00
Ar -1.41445447e+00  9.44325486e-01 -3.32740515e+00
Ar  2.18935559e+00 -3.27106211e+00  8.79268534e-01
Ar -1.42373145e+00  3.25511550e+00  2.03807456e+00
Ar -7.48021484e-01  2.53772324e+00  1.47386375e+00
Ar -2.93252790e+00  1.16297876e-01 -1.58267549e-01
Ar  3.06446810e+00  2.00807378e+00  2.41798530e+00
Ar  1.41840741e+00  9.37572696e-01  5.74485215e-01
Ar  3.14738800e-01 -1.65349460e+00 -2.94298479e+00
Ar  1.28996058e+00 -2.85889371e+00 -8.26591445e-01
Ar  6.60000634e-01 -1.95711683e+00 -8.39520191e-01
Ar  1.39643371e+00  3.40990322e+00  1.54600342e+00
Ar -2.97146218e+00  1.66862366e+00 -1.33575300e+00
Ar  3.08425224e+00 -2.63226330e-01 -6.49449591e-01
Ar -1.26516547e+00  5.86445038e-01 -2.35803793e+00
Ar -2.23561218e+00 -2.07670253e+00  2.82308840e+00
Ar -2.16905810e+00 -1.80978691e+00 -3.96769902e-01
Ar -1.40598820e+00  3.14046230e+00 -1.14463738e+00
Ar  1.67781958e+00  2.47022813e+00  2.22432577e+00
Ar  9.43122623e-01 -3.15214281e+00  3.13161659e+00
Ar -2.16915795e+00  5.80567208e-01  2.78172517e+00
Ar  2.41710855e+00 -9.71330077e-01  2.04129861e+00
Ar -2.65388467e+00  1.76579511e+00  5.16737308e-01
Ar  2.55645358e+00 -8.96301513e-01  1.03273498e+00
Ar -1.01795379e+00 -3.05660896e+00  3.32058194e+00
Ar -1.79162967e+00 -2.41130127e+00 -2.99785966e+00
Ar  5.58387426e-01 -3.37183489e+00 -4.07047962e-01
Ar  1.47055984e-01 -1.31856495e+00 -9.58883648e-02
Ar  9.21224204e-01  1.94098355e+00  4.25739022e-01
Ar -3.35138567e+00 -6.23999431e-01 -1.45843426e+00
Ar -1.17001556e+00 -2.06990949e+00  3.05021753e+00
Ar  2.61145640e+00  2.82791967e-01 -2.60243422e+00
Ar  8.32380273e-01 -1.91607940e+00 -1.91563615e+00
Ar -3.25655686e+00  6.78096226e-01  2.26207517e+00
Ar  1.77829354e+00 -1.92752295e+00 -1.50029762e+00
Ar  4.94054735e-01 -1.50970855e-01  4.41696953e-02
Ar -1.60879851e+00 -4.12695521e-01  2.30619615e+00
Ar -3.03600948e+00 -1.07307807e+00 -5.55309881e-01
Ar  6.93038800e-01 -1.42782898e+00  1.83986378e+00
Ar -8.85244958e-01 -3.30944293e+00 -2.07043896e+00
Ar  2.14298070e+00  2.21234395e+00 -5.73570422e-01
Ar -3.32709496e+00 -2.08714058e+00 -6.81729267e-01
Ar  1.60907894e+00 -4.24956426e-01  2.58545669e+00
Ar -1.02681037e+00  5.33206720e-01  2.56016051e+00
Ar -5.30000771e-01 -1.34779485e+00 -1.87944940e+00
Ar -1.86607478e+00 -7.89191324e-01 -3.93572816e-01
Ar -2.27092093e+00  1.77145963e+00  3.09170818e+00
Ar  3.40090323e-01 -9.87131418e-01 -1.50728128e+00
Ar -6.41239185e-01 -2.12787111e+00 -2.74360884e+00
Ar  1.20571098e+00  1.95674811e+00 -2.69329036e+00
Ar  7.68296282e-01  1.85293493e+00  2.19706717e+00
Ar  1.63874324e-01  3.39303324e+00  5.32534744e-01
Ar  4.33804495e-01 -2.83952700e+00  1.42933394e+00
Ar  3.17297889e+00  8.40503907e-01 -1.68523369e-01
Ar  2.65134922e+00 -1.27016217e+00 -1.03958412e+00
Ar  2.60740581e+00  1.25257119e+00  3.02080994e+00
Ar -5.36563415e-01 -1.08339879e+00 -3.28769248e+00
Ar  1.07755888e+00  2.48275995e+00 -5.81504378e-01
Ar  1.56920301e+00 -2.73349320e+00 -1.98712408e+00
Ar -4.17265321e-01 -3.41782902e+00  1.83909696e+00
Ar -6.83451424e-01 -5.30170268e-01  2.32891960e+00
Ar -1.98324080e+00 -2.27644649e+00  5.76527084e-01
Ar  2.23967893e+00 -2.25637163e+00  2.47876353e+00
Ar  2.05977296e+00  3.43898862e-02  3.66623097e-01
Ar -7.70422536e-01 -4.06445716e-01 -2.34150055e+00
Ar -6.67680287e-01  2.65724215e+00 -2.80599427e+00
Ar  1.50192196e+00  1.74184881e+00  1.42805702e+00
Ar -2.63375621e+00 -1.80705327e-01 -3.41297396e+00
Ar  2.59585564e+00 -1.24348289e+00  3.10343512e+00
Ar -1.57639479e+00 -2.59076212e+00  1.81984453e+00
Ar -3.29882291e+00  1.64679343e+00  3.39681481e+00
Ar -3.27693362e-01 -2.34574187e+00  3.62301290e-01
Ar -2.63045767e+00  1.71740267e+00  2.21336949e+00
Ar -6.68449855e-01 -2.26079877e+00  2.30944221e+00
Ar -1.40179983e+00  1.96617155e+00 -4.53383940e-01
Ar -1.65272718e+00  2.49101820e+00 -2.26002986e+00
Ar -1.48426108e-01  4.02837972e-01 -3.86291734e-01
Ar  3.09420585e+00  2.51785846e-01  1.46239183e+00
Ar  3.08802689e+00 -2.82667717e+00  7.53731157e-02
Ar -2.58864088e+00 -2.98960770e+00 -3.10662659e+00
Ar  3.16686653e-02 -3.35047999e+00 -2.64752379e+00
Ar  3.17902308e+00 -1.91839043e+00  2.54057510e+00
Ar  1.74634453e+00 -1.77399413e+00 -4.73600065e-01
Ar  2.87205366e+00  2.65978698e+00 -1.14508680e+00
Ar -2.65081108e+00 -2.10058824e+00  1.94222059e+00
Ar  2.30713864e-01  1.25011523e+00 -1.30399808e+00
Ar  6.03000494e-02  3.78571817e-01 -1.99848101e+00
Ar -8.67743114e-01  3.39119782e+00  7.82699564e-01
Ar  2.07837502e+00 -3.16490869e+00 -3.03174434e+00
Ar -1.35963962e+00 -1.38849220e+00  1.99531672e+00
Ar -2.79264198e+00  2.89507109e+00  4.34333001e-01
Ar -3.13155441e+00  2.37441747e+00 -5.53779403e-01
Ar -1.00954002e+00  1.68749144e+00 -2.49167227e+00
Ar -3.06457238e+00 -2.59188858e+00  8.68626983e-01
Ar -2.43435795e+00 -1.14631928e+00  1.69953150e+00
Ar -3.22074532e+00  3.34734801e+00 -6.85215916e-01
Ar  1.05811037e+00 -8.45518061e-01 -6.09159663e-01
Ar  1.75935773e+00  9.27533809e-01 -2.87362309e+00
Ar -2.27271435e+00 -2.58173489e+00 -1.11141690e+00
Ar  2.92892832e+00 -1.85288201e+00  8.47453256e-01
Ar  2.65208657e+00  2.18982044e+00 -3.31678924e+00
Ar -2.88109568e+00 -2.53232980e-01  1.12515714e+00
Ar -2.18492248e+00 -8.48799764e-01 -2.57073778e+00
Ar  1.82133030e+00  1.14718566e+00  2.32980178e+00
Ar  4.74513231e-01 -2.37182596e+00  2.38438965e+00
Ar  5.65664072e-01  8.36575456e-02 -1.17573749e+00
Ar  3.12342851e+00 -2.18107676e-01  3.67702102e-01
Ar  1.82338281e+00 -1.56134783e+00  1.41249465e+00
Ar  2.50887760e+00  3.10574993e+00 -2.10339848e+00
Ar -8.65072485e-01  3.28249514e+00 -2.34848946e-01
Ar  1.06036809e+00  2.61086304e+00 -1.89134866e+00
Ar  3.21206577e+00  3.24064198e+00 -3.04524770e+00
Ar  2.88788360e+00  1.63019979e+00 -1.00495409e+00
Ar  1.81541506e+00  2.84102618e+00  1.17716976e-01
Ar  2.55989605e+00  3.73838057e-01  2.37578965e+00
Ar -2.03571480e+00  2.54529618e-02  5.55156918e-01
Ar  1.60662959e+00 -2.31544447e+00 -3.40827216e+00
Ar -2.72412270e+00  3.03771011e+00  2.00220554e+00
Ar  3.86755800e-01  3.43410139e-01 -2.95725533e+00
Ar -1.92911843e-01 -6.16999223e-01  1.28901882e+00
Ar -6.47151606e-02  1.15154563e+00  2.93392485e-01
Ar -1.58639496e+00 -2.09589185e+00 -1.84996007e+00
Ar  2.50172130e-01  2.91439885e+00 -1.17261708e+00
Ar -3.31586043e+00 -1.06805558e+00  5.89573175e-01
Ar  8.58397262e-01 -2.58589726e+00 -2.84240682e+00
Ar  5.84560130e-01 -2.28359781e+00  1.01398666e-01
Ar -1.69889642e+00 -2.96700397e+00 -3.57313273e-01
Ar -2.11201279e+00  1.14383470e+00 -1.67975369e+00
Ar -3.01130431e+00  9.32497842e-01 -2.17642380e+00
Ar -4.22006441e-02  2.22879266e+00  5.92902517e-01
Ar  3.21707409e+00  3.27484568e+00  8.95629592e-01
Ar -1.69648001e+00  2.31900808e+00  1.54415970e+00
Ar -1.82779341e+00  2.15252738e+00 -1.30780593e+00
Ar -1.45271508e+00  1.50958118e+00  2.21372970e+00
Ar  3.09238697e+00  2.91420572e+00  1.94935762e+00
Ar  2.60470414e+00  1.27532689e+00  1.76808989e+00
Ar -2.23913268e+00  1.77552268e+00 -2.79354076e+00
Ar -6.31507400e-01 -5.47681096e-01 -4.09143829e-01
Ar -7.38378882e-01  2.64224696e+00  2.47342631e+00
Ar  5.45740276e-02  1.81874731e+00 -2.45689452e+00
Ar  2.79714606e+00  1.28043122e+00 -2.36659011e+00
Ar -2.52645628e+00 -8.55895238e-02  2.15602466e+00
Ar -1.20415926e+00 -2.01047209e+00 -5.76027425e-01
Ar -2.63560966e+00  2.83206323e+00 -2.75515148e+00
Ar  2.96132460e+00  1.90692195e+00  1.85930104e-01
Ar  1.63249738e+00  2.03645992e-01 -1.81357182e+00
Ar -2.36009656e+00  1.69424118e+00 -5.64382119e-01
Ar -2.95120508e-01  1.81171140e+00  2.07252076e+00
Ar -1.83305961e+00  2.66512587e+00 -3.40869934e+00
Ar  5.97874769e-01  1.32879015e+00 -3.31543196e+00
Ar  3.33588245e+00 -1.45661382e+00  1.64612891e+00
Ar  6.26386780e-01  3.03158720e+00  2.27577284e+00
Ar  9.27043853e-01 -1.98190740e+00  9.55619430e-01
Ar  2.45725129e+00 -2.47524597e+00  1.43844371e+00
Ar  1.57868764e+00  3.09097999e+00 -1.22111950e+00
Ar -2.16046257e+00 -1.14881822e+00  6.68915427e-01
Ar  2.12621394e+00  3.33632313e+00  2.63105353e+00
Ar -6.56965681e-01  1.30880284e+00  1.29720756e+00
Ar  2.51333751e+00  2.30369300e+00  1.24432750e+00
Ar  7.46744919e-01  1.78249678e-01  9.68148475e-01
Ar -1.21252048e+00  4.10693075e-01 -1.47778166e-01
Ar  1.14791305e+00  3.32934295e+00 -2.53585627e+00
Ar -2.27404552e-01  3.06274873e+00  3.15306361e+00
Ar -2.66437237e+00  2.72132390e+00 -1.44674733e+00
Ar  2.14135192e+00 -3.22007674e+00 -3.97128481e-01
Ar -3.29930179e+00 -7.24325296e-04 -2.52887131e+00
Ar -1.23588499e+00  1.17594897e+00  5.32307407e-01
Ar -1.98659010e+00  1.11002491e+00  1.12964748e+00
Ar  3.40795353e+00  2.34840543e+00 -2.10108264e+00
Ar  3.37255650e+00 -8.19031534e-01 -3.05450004e+00
Ar  1.61964432e+00 -5.03326631e-02 -2.88644276e+00
Ar  3.27904061e+00  5.88099996e-01 -3.32752100e+00
Ar  2.02649982e+00 -2.39558937e+00  2.50552711e-01
Ar  3.41957781e+00  1.91704538e+00  1.21368729e+00
Ar -2.34328988e+00  9.21209326e-01 -2.06298124e-02
Ar  1.90053989e+00 -7.31891422e-02 -7.34802698e-01
Ar -2.59627859e+00 -2.89451817e+00 -4.88647674e-02
Ar -3.07014233e+00  8.38568534e-01  7.86390309e-01
Ar -2.34692853e+00 -1.35595236e+00 -1.50851158e+00
Ar  1.21858823e+00  2.59510160e+00  3.04679047e+00
Ar -5.18766063e-01 -2.57555406e-01 -1.40818297e+00
Ar  2.48410787e+00 -3.94697054e-01 -1.61913569e+00
Ar  6.17980454e-01 -3.14512040e+00 -1.68486540e+00
Ar -3.53073639e-01 -1.60499175e+00 -9.65723575e-01
Ar  1.34779378e+00  6.25959382e-01  3.13393528e+00
Ar  2.86214594e+00 -1.55032544e+00 -1.22566256e-01
Ar  8.51606578e-01 -8.94062986e-01  8.10784494e-01
Ar  1.34747469e+00 -2.42485556e+00  1.85103250e+00
Ar -1.12632811e+00 -4.34519987e-01  8.86195327e-01
Ar -2.81260700e+00 -1.67964745e+00 -3.22597230e+00
Ar -1.54522879e+00  2.35409895e-01  1.54294495e+00
Ar -5.52757173e-01 -5.35990500e-02 -3.39588441e+00
Ar -2.76189670e+00 -2.24110048e+00 -2.29968940e+00
Ar  2.17262630e+00  2.13652020e+00 -2.08143471e+00
Ar  1.82482998e+00  6.73114453e-01  1.42660868e+00
Ar  1.63604654e+00 -4.62443698e-01  1.22283215e+00
Ar -2.95601042e+00  2.72419085e+00  3.05863852e+00
Ar  1.88399946e+00  1.83636899e+00  2.88698649e-01
Ar -2.04270999e+00  3.39248790e+00  1.02481896e+00
Ar -3.05331796e+00 -3.17416169e+00 -1.88296789e+00
Ar  2.55269710e-01 -5.55175783e-02  2.83583539e+00
Ar  6.69329346e-01  2.53158133e+00  1.36935634e+00
Ar  1.11586128e-01 -7.47232450e-01 -2.57204133e+00
Ar -1.54300394e+00 -1.17797201e-01  3.31886522e+00
Ar -3.00322799e+00  6.88557920e-01 -1.09667083e+00
Ar  2.56403040e+00  9.08661650e-01  7.12324114e-01
Ar  1.82705683e+00 -9.75108673e-01  2.07967967e-01
Ar  1.24569692e+00 -3.07672698e+00  4.26243699e-01
Ar  1.73857140e+00  1.76088663e+00  3.12179146e+00
Ar  3.25550267e+00 -2.28455555e+00 -3.31776302e+00
Ar  1.71946532e-01  9.21269788e-01  2.30644583e+00
Ar -4.52061970e-01  3.44678037e-01  1.73871437e+00
Ar -2.38680419e+00 -3.21402511e+00  2.73670229e+00
256
Lattice="6.839904 0.0 0.0 0.0 6.839904 0.0 0.0 0.0 6.839904" Properties=species:S:1:pos:R:3 Time=200
Ar -3.81744507e-01  2.27729392e+00 -1.54929433e+00
Ar  2.49080319e-01 -1.68723831e+00  3.01751959e+00
Ar -2.25442357e+00  8.34991887e-01 -2.86062305e+00
Ar -1.69311992e-01  1.02003632e+00 -2.90011530e+00
Ar -3.24350739e+00 -2.05962832e+00 -1.88228233e+00
Ar -7.03261205e-01  3.09890748e-01  7.22704647e-01
Ar -1.36677226e+00 -1.44817499e+00 -9.29991969e-01
Ar  1.31420232e+00 -1.37599535e+00 -2.86118556e+00
Ar -1.03375548e+00  2.19919715e+00  3.34662679e+00
Ar -9.03816613e-02  1.80573694e+00  2.93939103e+00
Ar  9.35944897e-01  1.36032578e+00  1.28047097e+00
Ar -1.91425995e+00 -3.18239867e+00 -2.30196379e+00
Ar  1.00032268e+00  7.83008803e-01 -2.36209977e+00
Ar  2.34586199e+00 -1.48988203e+00 -2.84552408e+00
Ar -9.49668630e-01 -2.15078756e+00  1.03097643e+00
Ar  6.14021439e-01  1.36909721e+00 -5.57581520e-01
Ar -2.65211131e-01  1.96219002e+00 -5.41665226e-01
Ar -3.29233876e+00 -5.60284564e-01  2.38653379e+00
Ar  2.81894688e+00  5.69992848e-01 -1.43547050e+00
Ar -2.54687367e+00  2.74200228e-02 -1.72253611e+00
Ar  2.65881475e+00 -3.01145263e+00 -1.24237074e+00
Ar -1.12059720e+00  2.35761411e+00  2.88676103e-02
Ar  1.40305873e+00 -1.27144101e+00  2.62006511e+00
Ar  5.82306356e-01 -7.10180298e-01  3.14664026e+00
Ar  1.26891100e+00 -6.71595586e-01 -1.99761984e+00
Ar -1.64127382e-01 -1.56786108e+00  1.02259723e+00
Ar  1.20062685e+00  6.29980589e-01  1.94473835e+00
Ar -2.05864363e+00  2.35715850e+00  2.53787811e+00
Ar -2.10325976e+00  2.26957710e+00 -3.50399391e-01
Ar -3.35526153e-01 -2.60583847e+00  2.97769432e+00
Ar  1.79919921e+00  8.95555283e-01 -5.60752306e-01
Ar  1.39481948e+00  1.56865235e+00 -1.26466573e+00
Ar -1.35850508e+00 -3.41411645e-01 -1.66161209e+00
Ar  2.63268337e+00 -2.29710599e-01  3.29112199e+00
Ar  3.23993097e+00 -2.99073338e+00  2.11848505e+00
Ar -1.03290976e+00 -1.64537555e+00  3.02669817e+00
Ar  2.72987434e+00  2.72596406e+00  7.22220470e-01
Ar -2.00091642e+00  4.86203808e-01 -1.02783180e+00
Ar -1.37087670e+00 -9.55400274e-01 -2.63858806e+00
Ar  2.51635560e+00 -2.54814811e+00 -2.68088597e+00
Ar -1.01219143e+00  5.35302709e-01 -1.46417119e+00
Ar -8.66871102e-01 -2.66022423e+00 -1.26351536e+00
Ar -4.17886060e-01 -2.26716353e+00 -2.11805274e+00
Ar  3.14557675e+00 -1.05626900e+00 -2.24846236e+00
Ar -1.22225887e+00  7.55389742e-01  3.36667692e+00
Ar  2.04551591e+00 -3.26423290e+00  7.61934357e-01
Ar -1.58901262e+00  3.10134980e+00  1.83361853e+00
Ar -8.85383480e-01  2.42531297e+00  1.19861569e+00
Ar -2.63106180e+00  9.47310337e-02 -1.18613772e-02
Ar  2.86797520e+00  2.23588682e+00  2.83709609e+00
Ar  1.08108339e+00  5.52313282e-01  6.34728204e-02
Ar  3.10745633e-01 -1.77167199e+00 -2.80407851e+00
Ar  1.82763516e+00 -2.33928979e+00 -8.92170119e-01
Ar  1.00123569e+00 -1.90333232e+00 -6.35036654e-01
Ar  1.18549548e+00 -3.41534360e+00  1.44337851e+00
Ar -3.38127921e+00  1.84723046e+00 -1.68279543e+00
Ar  2.77584750e+00 -4.99725623e-01 -5.90543054e-01
Ar -1.30857587e+00  6.65120353e-01 -2.36285774e+00
Ar -2.03975823e+00 -1.95596793e+00  2.75136936e+00
Ar -2.32955848e+00 -1.73486426e+00 -3.33734747e-01
Ar -1.80539022e+00  3.11436622e+00 -9.70426277e-01
Ar  1.32335949e+00  2.68401689e+00  2.23997095e+00
Ar  8.94824230e-01 -3.14580000e+00  3.27731378e+00
Ar -2.11461906e+00  1.07927240e+00  2.66117616e+00
Ar  2.46506172e+00 -5.52376633e-01  2.21587676e+00
Ar -2.70894891e+00  1.72499610e+00  1.93224979e-01
Ar  2.41421073e+00 -7.84891814e-01  1.03740529e+00
Ar -9.80132529e-01 -3.41827271e+00  2.95706406e+00
Ar -1.65545519e+00 -2.60502313e+00 -3.28073377e+00
Ar  6.15910227e-01 -2.96082046e+00 -7.34261683e-01
Ar -1.46145577e-01 -1.20933959e+00 -3.80881478e-02
Ar  8.21882309e-01  1.84152647e+00  3.57575651e-01
Ar -3.41049935e+00 -4.14931441e-01 -1.40201404e+00
Ar -1.23691797e+00 -2.58861826e+00  2.37225731e+00
Ar  2.67305673e+00  5.87527474e-01 -2.75420926e+00
Ar  1.36358019e+00 -1.78666234e+00 -1.84601687e+00
Ar -3.14642345e+00  7.27806302e-01  2.10873481e+00
Ar  2.33807810e+00 -1.58500186e+00 -1.56135292e+00
Ar  4.82835543e-01 -3.58695970e-01  8.70339108e-02
Ar -1.54642337e+00 -7.95605858e-01  2.26874953e+00
Ar -2.96988043e+00 -8.90578683e-01 -3.05168013e-01
Ar  8.78513968e-01 -1.45289917e+00  1.86555962e+00
Ar -1.05323535e+00  3.26842301e+00 -1.73687291e+00
Ar  2.50400961e+00  2.57098234e+00 -4.22393718e-01
Ar  3.31021089e+00 -2.32659417e+00 -8.46405092e-01
Ar  1.62143779e+00 -1.20813488e-01  2.58080142e+00
Ar -8.39003373e-01  1.18555741e+00  2.41583552e+00
Ar -6.33605370e-01 -1.25831214e+00 -2.10570886e+00
Ar -1.86822386e+00 -5.63590548e-01 -6.50408803e-01
Ar -2.03989836e+00  1.82739670e+00 -3.35853073e+00
Ar  3.72427458e-01 -1.38715854e+00 -1.80333309e+00
Ar -7.48926216e-01 -2.72684126e+00 -2.92538945e+00
Ar  1.57758126e+00  2.24451907e+00 -2.93527696e+00
Ar  7.93231623e-01  1.79781794e+00  2.28804691e+00
Ar  5.03364372e-01  3.39761541e+00  5.61894235e-01
Ar  1.79970628e-01 -2.58475837e+00  1.06898951e+00
Ar  2.86782784e+00  7.02122060e-01 -9.27792876e-02
Ar  3.26290209e+00 -1.33224585e+00 -1.23109706e+00
Ar  2.62034761e+00  1.24736420e+00  3.06234545e+00
Ar -3.82287118e-01 -9.93850526e-01 -3.21171777e+00
Ar  7.79286885e-01  2.73800738e+00 -3.41583263e-01
Ar  1.70217024e+00 -2.72084797e+00 -2.15737128e+00
Ar -6.39347435e-01 -3.31371675e+00  1.59458081e+00
Ar -3.89302392e-01 -1.11373566e+00  2.39222542e+00
Ar -1.86319823e+00 -2.13061254e+00  5.19922441e-01
Ar  2.45498612e+00 -2.36073405e+00  2.76621541e+00
Ar  1.66161772e+00 -2.86974709e-01 -1.12107182e-01
Ar -5.22768596e-01 -9.64307775e-02 -2.69874528e+00
Ar -1.12377898e+00  3.06450055e+00 -2.73544220e+00
Ar  1.29707163e+00  2.32051870e+00  1.21902667e+00
Ar -2.42781663e+00 -7.23455748e-02 -3.27405556e+00
Ar  2.74082835e+00 -1.35367197e+00  3.11095420e+00
Ar -1.77671812e+00 -2.76558758e+00  1.35010061e+00
Ar -3.12105818e+00  1.97327970e+00 -3.28014016e+00
Ar -6.24333992e-01 -2.51088404e+00 -1.14436883e-01
Ar -3.07446536e+00  1.67184759e+00  2.51687046e+00
Ar -3.72346843e-01 -2.12795199e+00  1.92284851e+00
Ar -1.31552688e+00  1.73617996e+00 -9.81713003e-01
Ar -1.22050665e+00  2.22729018e+00 -2.08642553e+00
Ar -2.27168721e-01  6.27238518e-01 -4.99592551e-01
Ar  2.90008019e+00  1.92348525e-01  1.21986730e+00
Ar  3.03845596e+00 -2.65543641e+00  1.52718901e-01
Ar -2.67786306e+00 -3.29035768e+00 -3.00987183e+00
Ar -1.35146638e-01  3.21589274e+00 -2.25152922e+00
Ar -3.09345126e+00 -1.69945337e+00  2.83999622e+00
Ar  2.13851333e+00 -1.24572335e+00 -5.47957989e-01
Ar  3.02512344e+00  2.74805065e+00 -1.47325237e+00
Ar -2.74494827e+00 -2.32753597e+00  2.02438453e+00
Ar  1.82946792e-01  1.40897848e+00 -1.77157301e+00
Ar  2.61744542e-01  1.17937099e-03 -1.93688969e+00
Ar -5.56744116e-01  3.33724708e+00  6.06582923e-01
Ar  2.04403226e+00 -3.37762410e+00  3.36197451e+00
Ar -1.61422478e+00 -1.76735187e+00  1.68361244e+00
Ar -2.81725493e+00  2.75197709e+00  4.47768762e-01
Ar -3.29699856e+00  2.14913865e+00 -4.85556682e-01
Ar -2.38511153e-01  2.10448371e+00 -2.77375742e+00
Ar -2.80446163e+00 -2.05420659e+00  8.94758893e-01
Ar -2.68177387e+00 -1.23528857e+00  1.96553040e+00
Ar  3.39586828e+00  3.18141497e+00 -3.99884091e-01
Ar  8.33240589e-01 -6.35298418e-01 -8.08754228e-01
Ar  1.95436548e+00  1.14402963e+00 -3.02807910e+00
Ar -2.05078057e+00 -2.65721153e+00 -1.34836170e+00
Ar  2.99837856e+00 -1.78363167e+00  1.05446266e+00
Ar  2.51571828e+00  2.58922566e+00 -3.09256718e+00
Ar -2.72160597e+00 -6.02924588e-02  1.29619102e+00
Ar -2.12263160e+00 -1.01519075e+00 -1.86496452e+00
Ar  1.93932001e+00  1.47809905e+00  1.81667136e+00
Ar  1.02208326e+00 -2.38726768e+00  2.46364150e+00
Ar  8.29785883e-01  5.19594205e-01 -1.00832279e+00
Ar  3.32480096e+00 -2.50025338e-01  4.41702576e-01
Ar  1.96257675e+00 -1.36126143e+00  1.69064047e+00
Ar  2.38175467e+00  3.25178439e+00 -2.23281555e+00
Ar -8.72749615e-01  3.05503136e+00 -6.27038822e-01
Ar  1.19386864e+00  2.50546692e+00 -1.31367260e+00
Ar  3.04898490e+00 -3.14356273e+00 -3.21705197e+00
Ar  2.70333113e+00  1.81337469e+00 -9.85888459e-01
Ar  1.54215979e+00  2.79319038e+00  3.57129937e-01
Ar  2.68662624e+00  7.06112406e-01  2.25958128e+00
Ar -1.82948411e+00  1.66324264e-01  8.59044766e-01
Ar  1.62984600e+00 -2.24340774e+00  3.38766269e+00
Ar -2.75731841e+00 -3.40042914e+00  1.26916775e+00
Ar  4.43577747e-01  2.38778027e-01 -3.10874327e+00
Ar -4.58807018e-01 -2.79094499e-01  1.68987590e+00
Ar  5.24695034e-02  1.09112334e+00  3.56024918e-01
Ar -1.51709752e+00 -2.01866196e+00 -1.83461966e+00
Ar -2.34070177e-02  3.22221700e+00 -1.21170393e+00
Ar -3.33797578e+00 -9.09357180e-01  1.20710808e+00
Ar  5.71820972e-01 -2.71383741e+00 -2.70855129e+00
Ar  4.83537932e-01 -2.06792207e+00  2.29609751e-01
Ar -1.51614560e+00 -2.80093259e+00 -4.09187492e-01
Ar -2.13089435e+00  1.13476704e+00 -1.85725508e+00
Ar -3.15756875e+00  8.07367500e-01 -2.08617765e+00
Ar -6.03344455e-02  2.45413840e+00  3.85491516e-01
Ar  2.97539666e+00 -3.23510670e+00  1.10785985e+00
Ar -1.81308275e+00  1.88107247e+00  8.18808809e-01
Ar -2.31548242e+00  2.29301192e+00 -1.46867165e+00
Ar -1.50241987e+00  1.85897102e+00  1.90801080e+00
Ar  3.39043363e+00  2.79969800e+00  1.63105660e+00
Ar  2.95114539e+00  1.29319578e+00  1.39489066e+00
Ar -2.65834101e+00  1.75713024e+00 -2.40730010e+00
Ar -1.20690617e+00 -4.78458042e-01  1.72716677e-01
Ar -3.68516621e-01  2.60652579e+00  2.24846023e+00
Ar  6.79680077e-01  2.39900011e+00 -2.24998947e+00
Ar  2.88303145e+00  1.63953593e+00 -2.76908036e+00
Ar -2.38455956e+00 -8.61905474e-02  2.57290538e+00
Ar -1.23992940e+00 -1.48240327e+00  2.03682366e-01
Ar -2.18903312e+00  2.69100166e+00 -2.59818309e+00
Ar  3.14288617e+00  1.83139972e+00  5.46643780e-01
Ar  2.06709369e+00  8.99044123e-01 -1.96249861e+00
Ar -2.57448682e+00  1.39318259e+00 -9.64148924e-01
Ar -7.02623597e-02  1.77027243e+00  1.58367796e+00
Ar -1.88492714e+00  3.12040503e+00  3.33229080e+00
Ar  7.22324669e-01  1.64600353e+00 -3.12165730e+00
Ar  3.10387381e+00 -1.50377611e+00  2.06461939e+00
Ar  4.09421710e-01 -3.32771586e+00  2.16125056e+00
Ar  1.19832784e+00 -2.35336413e+00  1.15742147e+00
Ar  2.48786537e+00 -2.41042856e+00  1.72231702e+00
Ar  1.81762023e+00  3.23377647e+00 -1.24504601e+00
Ar -2.25413327e+00 -1.11264962e+00  5.92206443e-01
Ar  2.60215141e+00  3.24352138e+00  2.56883657e+00
Ar -9.22268710e-01  9.96695526e-01  1.31508876e+00
Ar  2.24516350e+00  2.69794431e+00  1.68148672e+00
Ar  2.71212578e-01  3.48885628e-01  1.06213927e+00
Ar -1.20563456e+00  4.23782243e-01 -3.34800637e-01
Ar  1.31344278e+00  3.19301676e+00 -2.59048560e+00
Ar -1.22213776e-01  3.07850884e+00  3.31035210e+00
Ar -2.76528738e+00  3.13683630e+00 -1.10980240e+00
Ar  2.45438483e+00 -3.27194406e+00 -2.50902572e-01
Ar -3.35655650e+00 -2.87234458e-02 -2.64933200e+00
Ar -1.02501623e+00  1.39055719e+00  1.03912893e-01
Ar -2.28181340e+00  1.16906851e+00  1.66556573e+00
Ar -3.29114173e+00  2.63488824e+00 -2.50334399e+00
Ar -3.29074484e+00 -8.95343134e-01 -3.24748830e+00
Ar  1.55899540e+00  3.47056575e-03 -3.17109532e+00
Ar -3.32883335e+00  7.99020493e-01 -3.27446607e+00
Ar  2.14048073e+00 -1.87995862e+00  4.44459757e-01
Ar -2.89210243e+00  1.99863415e+00  1.27990597e+00
Ar -1.90928482e+00  9.54142153e-01  3.08643483e-01
Ar  1.81275934e+00 -9.53120479e-02 -1.11043552e+00
Ar -2.51004785e+00 -2.86801880e+00 -3.99115394e-01
Ar -3.17918438e+00  9.37671004e-01  5.41837046e-01
Ar -2.61358121e+00 -1.67488501e+00 -1.27395167e+00
Ar  9.41646216e-01  2.75901480e+00  3.12817868e+00
Ar -2.72935193e-01 -2.17935305e-01 -1.08882946e+00
Ar  2.37504964e+00 -2.44338308e-01 -2.10143901e+00
Ar  9.32673820e-01 -3.26769019e+00 -1.74555239e+00
Ar -8.00698995e-02 -1.89033980e+00 -8.42856392e-01
Ar  1.57248687e+00  9.84133244e-01  2.72176009e+00
Ar  3.18884042e+00 -1.61730132e+00 -4.66514197e-02
Ar  6.82165722e-01 -7.95418443e-01  9.82073412e-01
Ar  1.77277492e+00 -3.12785825e+00  2.21609281e+00
Ar -1.18426658e+00 -8.03638056e-01  1.22060000e+00
Ar -2.22080794e+00 -1.08334094e+00  3.28406592e+00
Ar -1.56078785e+00  2.45566432e-01  1.93969073e+00
Ar -3.92472289e-01  1.41637149e-01  2.87641998e+00
Ar -2.32205972e+00 -2.01551007e+00 -2.58485019e+00
Ar  2.25650320e+00  1.97772790e+00 -2.00232684e+00
Ar  1.74111829e+00  3.79730708e-01  1.10841143e+00
Ar  1.41102616e+00 -4.47185980e-01  1.59583697e+00
Ar -3.15961582e+00  2.99606232e+00  2.74303432e+00
Ar  1.71061207e+00  1.80398353e+00 -1.91981926e-01
Ar -1.92509288e+00  3.17193813e+00  7.38101301e-01
Ar  3.31900143e+00 -3.09466427e+00 -2.14219816e+00
Ar  6.42290566e-01 -4.83758910e-01  2.22154184e+00
Ar  2.14604126e-01  2.83002243e+00  1.38351596e+00
Ar  5.23067157e-01 -7.28936499e-01 -2.61080573e+00
Ar -1.25870239e+00 -2.80406612e-01  3.08362354e+00
Ar -3.17052971e+00  5.98535790e-01 -8.93058188e-01
Ar  2.04906823e+00  1.34317220e+00  6.07324461e-01
Ar  1.21202981e+00 -1.21068059e+00  1.40613762e-01
Ar  1.39818990e+00 -2.63337075e+00  1.59746093e-01
Ar  1.67791237e+00  1.92349033e+00  2.84439639e+00
Ar  3.37916271e+00 -2.08835199e+00 -3.05109013e+00
Ar  5.31729796e-01  8.35416502e-01  2.90182195e+00
Ar  8.87816902e-02  8.64243592e-01  1.94786538e+00
Ar -2.54960003e+00 -2.90479772e+00  2.99580097e+00
256
Lattice="6.839904 0.0 0.0 0.0 6.839904 0.0 0.0 0.0 6.839904" Properties=species:S:1:pos:R:3 Time=300
Ar -3.86576084e-01  2.36350295e+00 -1.68070527e+00
Ar  3.66381656e-01 -1.50109821e+00  2.71675606e+00
Ar -2.54157697e+00  6.83422367e-01 -3.10497694e+00
Ar -2.25878786e-01  1.10726503e+00 -3.16461256e+00
Ar  3.24946255e+00 -1.98626508e+00 -1.80351195e+00
Ar -6.74886559e-01  2.98815667e-01  1.34412403e+00
Ar -3.15611147e-01 -1.11355344e+00 -1.35896901e+00
Ar  1.07900868e+00 -1.65078944e+00  3.36155535e+00
Ar -1.18147998e+00  2.67681240e+00  3.36722955e+00
Ar  1.67149680e-01  1.89695462e+00  2.89503784e+00
Ar  9.26691752e-01  1.40305364e+00  1.26972777e+00
Ar -1.66406825e+00 -2.79850454e+00 -2.59849962e+00
Ar  8.13362838e-01  8.26933297e-01 -2.19231182e+00
Ar  2.29664984e+00 -1.54469989e+00 -3.06886772e+00
Ar -9.89768707e-01 -1.87543572e+00  4.26135582e-01
Ar  1.19321616e+00  1.69297475e+00 -8.61947661e-01
Ar -2.83413110e-01  1.94145505e+00 -5.58925102e-01
Ar -2.77101128e+00 -1.02104497e+00  2.56721730e+00
Ar  2.69146282e+00  5.62050924e-01 -1.44450613e+00
Ar -1.84054051e+00  2.16434807e-01 -1.86644723e+00
Ar  2.89251879e+00 -3.00048776e+00 -1.65222042e+00
Ar -1.15387062e+00  2.41974652e+00 -4.28560456e-02
Ar  1.54484469e+00 -1.41542431e+00  2.55066033e+00
Ar  7.39476022e-01 -6.21182393e-01  3.35071079e+00
Ar  1.45772346e+00 -1.08823503e+00 -2.03776219e+00
Ar -1.71667888e-01 -1.33638885e+00  1.11696577e+00
Ar  8.84808642e-01  5.95180129e-01  1.93469496e+00
Ar -1.88399549e+00  2.86865830e+00  2.40581890e+00
Ar -2.12782119e+00  2.78395286e+00 -3.93644732e-01
Ar -1.25084564e-01 -2.69158775e+00  3.22402878e+00
Ar  1.88708640e+00  7.33694132e-01 -6.90499402e-01
Ar  1.60848407e+00  1.58106217e+00 -1.86704557e+00
Ar -9.22614246e-01 -3.32003086e-01 -1.88472362e+00
Ar  2.35466254e+00 -5.31040966e-02  3.24149913e+00
Ar -3.27823340e+00 -2.68623848e+00  2.18427429e+00
Ar -1.28359170e+00 -1.73879007e+00 -2.96296940e+00
Ar  2.75254953e+00  2.85792753e+00  5.33174540e-01
Ar -2.17915278e+00  6.11607459e-01 -7.32416803e-01
Ar -1.55438448e+00 -7.50143425e-01 -2.75570513e+00
Ar  2.40774967e+00 -2.54475708e+00 -2.66202623e+00
Ar -9.66101709e-01  1.11126756e+00 -1.97509012e+00
Ar -7.73968580e-01 -3.26779142e+00 -1.25491636e+00
Ar -2.41445629e-01 -2.20140797e+00 -1.36303070e+00
Ar  2.88114812e+00 -1.15724086e+00 -2.07935015e+00
Ar -1.45344630e+00  8.51217492e-01  3.18317640e+00
Ar  2.18892758e+00 -3.14739477e+00  1.16181641e+00
Ar -1.48598330e+00  3.12014979e+00  1.38751300e+00
Ar -7.52568626e-01  2.56811164e+00  9.64764950e-01
Ar -2.65790384e+00  3.16095444e-01  2.85475914e-01
Ar  3.05877383e+00  2.49122619e+00  2.66903879e+00
Ar  9.76815696e-01  6.55334006e-01 -3.52476130e-02
Ar  2.15031046e-01 -1.79010720e+00 -3.05081713e+00
Ar  2.44004234e+00 -2.08021116e+00 -9.17030977e-01
Ar  1.28015893e+00 -2.12914411e+00 -4.63017821e-01
Ar  9.90871324e-01 -3.31276017e+00  1.11618371e+00
Ar -3.16160663e+00  1.87704196e+00 -1.73288264e+00
Ar  2.46771598e+00 -1.88082153e-01 -6.91268111e-01
Ar -1.46082465e+00  3.74009187e-01 -2.82051421e+00
Ar -1.79531006e+00 -1.24036394e+00  2.47553397e+00
Ar -2.69260439e+00 -1.58331260e+00 -4.02520078e-01
Ar -1.19060810e+00  2.65252228e+00 -1.18240411e+00
Ar  1.14653485e+00  2.63240076e+00  2.33029197e+00
Ar  9.19180362e-01 -3.06672065e+00  2.97980052e+00
Ar -2.52407254e+00  1.12895638e+00  2.67827517e+00
Ar  3.01317482e+00 -7.82709424e-01  1.93233754e+00
Ar -2.30510594e+00  1.28654672e+00 -4.98479570e-02
Ar  2.28110043e+00 -6.79599452e-01  1.17711212e+00
Ar -1.14792976e+00 -3.27690143e+00  2.66571084e+00
Ar -1.63061731e+00 -2.51085888e+00  3.32822171e+00
Ar  5.40485662e-01 -2.77659102e+00 -6.91174079e-01